DataDirectory /tmp/nipe_tor_data
PidFile /tmp/nipe_tor_run/tor.pid
RunAsDaemon 1
User daemon

ControlSocket /tmp/nipe_tor_run/control
ControlSocketsGroupWritable 1

CookieAuthentication 1
CookieAuthFileGroupReadable 1
CookieAuthFile /tmp/nipe_tor_run/control.authcookie

Log notice file /tmp/nipe_tor_log/log

ClientOnly 1
# Enhanced Security: Stream Isolation
# Forces Tor to build new circuits for each destination IP/Port
SocksPort 127.0.0.1:9050 IsolateDestAddr IsolateDestPort
# Ghost Mode: Auto-Rotate Circuits every 60 seconds
MaxCircuitDirtiness 60
DNSPort   127.0.0.1:9061

VirtualAddrNetwork 10.66.0.0/255.255.0.0
VirtualAddrNetworkIPv6 fd00::/8
AutomapHostsOnResolve 1
